% Model:              Paper2_optimized_designs.mph
% Version:            COMSOL 6.3.0.420
% Date:               Nov 7 2025, 14:27
% Table:              Table 1 - Line Average 1
% freq (Hz)                                       abs(acpr.p_t*acpr.p_t)*(0.01/0.05) (kg^2/(m^2*s^4)) symmetric (kg^2/(m^2*s^4))
300                                               0.578850603294861                                   0.5758815582390401
350                                               0.5877823964522122                                  0.5832587202858132
400                                               0.5976815458332672                                  0.5922238543915544
450                                               0.6081456758433949                                  0.6018404556522179
500                                               0.6203393796961953                                  0.6120327809270142
550                                               0.6345461952911379                                  0.6237329219246858
600                                               0.6495329896107112                                  0.6372217321740666
650                                               0.6650924955213849                                  0.6516045578892209
700                                               0.6824125325077159                                  0.6663680778340658
750                                               0.7014400469743797                                  0.6822529323971968
800                                               0.7208102486497328                                  0.6998490542949303
850                                               0.740513269042011                                   0.7184201301292761
900                                               0.7615991193999426                                  0.7370680118936094
950                                               0.7835322288210286                                  0.7561488647046798
1000                                              0.8048814376563894                                  0.7763654154793329
1050                                              0.8258408720184846                                  0.7971932935608754
1100                                              0.8471158378741523                                  0.8175006517621484
1150                                              0.8676814630273743                                  0.8372096558612212
1200                                              0.8863273076458995                                  0.8569630992444003
1250                                              0.9035129733698115                                  0.8764868957718651
1300                                              0.9195128320555116                                  0.8946955221659207
1350                                              0.9331715919634149                                  0.9112657772935148
1400                                              0.9439923590991501                                  0.9267452843423875
1450                                              0.9527341351641622                                  0.9411415400065617
1500                                              0.9593427158913982                                  0.9537072792828836
1550                                              0.9630841963487609                                  0.9641810148078067
1600                                              0.9644030325832692                                  0.9730630106926291
1650                                              0.9641182943566088                                  0.9805666031799305
1700                                              0.961949066129599                                   0.986353597557832
1750                                              0.9578175792165473                                  0.9903983285831318
1800                                              0.952764113975923                                   0.9931785380665686
1850                                              0.9472613984830359                                  0.9949401457178833
1900                                              0.940854861796056                                   0.9955879414951044
1950                                              0.9339931089000044                                  0.995311144173714
2000                                              0.9277978917680869                                  0.9945779097400474
2050                                              0.922206916423182                                   0.9935463955044956
2100                                              0.9166999344674414                                  0.9921458207818883
2150                                              0.9120386362088025                                  0.9906413943560711
2200                                              0.9091105736460681                                  0.9894816765197074
2250                                              0.9073892501183034                                  0.9887125999421944
2300                                              0.9064137067337432                                  0.9881440783633193
2350                                              0.9070685554308706                                  0.9879396351507499
2400                                              0.9098646892313856                                  0.9884474217123383
2450                                              0.9139551423889988                                  0.9896031893660346
2500                                              0.918980298612306                                   0.9910608227702937
2550                                              0.9257210330302641                                  0.9927468579177793
2600                                              0.934202207291967                                   0.994750582438484
2650                                              0.9433585153682538                                  0.9968332685056469
2700                                              0.9528333076736932                                  0.9985208664459221
2750                                              0.9629690926669364                                  0.9994715936951429
2800                                              0.9732053627064974                                  0.999339648923798
2850                                              0.9823693720005034                                  0.9975621936454895
2900                                              0.989920284754722                                   0.9936206966657849
2950                                              0.9955068147986322                                  0.9871090885195972
3000                                              0.9983361938163821                                  0.9773204198634271
3050                                              0.9977762255688006                                  0.9634148143167768
3100                                              0.9935810516918001                                  0.9451953068232682
3150                                              0.985925370460872                                   0.9228861577345067
3200                                              0.9764412979868348                                  0.8961184865147434
3250                                              0.9689226242801136                                  0.8643368692992331
3300                                              0.9713730167497677                                  0.8282209412235382
3350                                              1.0035834948107112                                  0.7892553248822235
3400                                              0.37516050692264097                                 0.7479728288762176
3450                                              0.36785892629976663                                 0.7042476113191386
3500                                              0.3641329906942186                                  0.6591368902098768
3550                                              0.3693335633143601                                  0.6145822212900881
3600                                              0.3505249196419093                                  0.5713664284617493
3650                                              0.3376738370150514                                  0.5290992945334221
3700                                              0.3263369813502981                                  0.4881275094730022
3750                                              0.31379087753271107                                 0.4497564514988295
3800                                              0.3006301460347194                                  0.4145024975315078
3850                                              0.28629291372919075                                 0.38165532837173616
3900                                              0.2702357495776633                                  0.35080308058576
3950                                              0.25433431416697305                                 0.32252827734547784
4000                                              0.23910674309449986                                 0.29721953482484065
