% Model:              Paper2_optimized_designs.mph
% Version:            COMSOL 6.3.0.420
% Date:               Dec 21 2025, 15:23
% Dimension:          1
% Nodes:              297
% Expressions:        2
% Description:        Line graph
% Arc length (m)          abs(acpr.p_t)            abs(acpr.p_t)
0                         0.7893862421495869       1.6031889640590098
1.1671646027444638E-4     0.7744987507050309       1.5944329301018914
3.5108019977792004E-4     0.7450341181502943       1.5772653346309298
5.731786574287856E-4      0.7168963314882449       1.5605748442709388
7.021603995561732E-4      0.700415224372726        1.55071159736234
8.382650971411332E-4      0.6828920986283558       1.5400454485506336
0.0010627596533605566     0.6543224315097121       1.5228006839789883
0.001292018217122326      0.6250998518933726       1.5048553960717674
0.0014414424286672833     0.6058461522745852       1.49294773640921
0.0015862838260720658     0.5872587749856142       1.4812693226801716
0.0018093752086084658     0.558899190071211        1.463589458994679
0.0020395252522787954     0.5297627696895526       1.4451341629800938
0.0021773079885497593     0.5120794329395005       1.4338562521450835
0.0022933275215193394     0.4973282376585533       1.424300138200857
0.002559994024774248      0.4637967480171886       1.4027753243055492
0.0029227635412819586     0.41880051172844784      1.3734277664908625
0.0029438169053844776     0.416209099028867        1.3717512358575878
0.002972115700927924      0.41277066405082097      1.3694902017405426
0.0033483468419451823     0.36654210850903046      1.338936402108292
0.0036038340780892852     0.3357446706378707       1.3182479226965549
0.0037650243572433517     0.31642576534389044      1.3053733386161483
0.004060552413313712      0.2816893181070068       1.2818430425849192
0.004176820382217228      0.2678801378686235       1.2724546251988778
0.004241776118971252      0.260326832652182        1.2672358605064364
0.004576708658238671      0.22160238415300076      1.2406776537319477
0.004819025625027229      0.1941076521266524       1.2215166323353466
0.0049916155493188175     0.17470188350509364      1.208082040474238
0.005420590321902674      0.12734025521260997      1.1747132713842674
0.0054530607268465925     0.12378450724512506      1.1722211730733871
0.005559993093182669      0.11229191777530376      1.1640198907419659
0.0059145059043742565     0.07394673002939653      1.1366386764135146
0.005996589311048961      0.06521078014163315      1.130284744109379
0.006384662290609855      0.02443209500237614      1.1008146340270102
0.006455287739997595      0.021553060879766228     1.0954200313840248
0.006673712632476514      0.021711040479103445     1.0790422486699052
0.006797585610033741      0.02063436550817109      1.0696819435917253
0.006835724469014592      0.021888527374304023     1.0668551981138314
0.007139883480069775      0.05264536246492076      1.0439846763747418
0.00728341134682442       0.06695999925870713      1.033400054077722
0.007584608233754286      0.0966623897669569       1.0111125182720404
0.007616890369342544      0.0998463959992953       1.0087314054071628
0.007681114007473289      0.10607968248456087      1.0040274340509165
0.007912390219727894      0.12862643082078176      0.9869713427626503
0.008028641653929247      0.1397765431500602       0.9784580333371455
0.008207890070113244      0.1570000388115892       0.9653499187973406
0.008490081072650146      0.183676970088049        0.9448544373204234
0.008546828497105419      0.1890515100499166       0.9407407066461949
0.008690061231519608      0.20240149564399335      0.9304286229340075
0.008885766924097593      0.22070387770614344      0.9162626204629561
0.008963303627215535      0.2278384119430913       0.9106886947750851
0.009244197691854472      0.2537200353306479       0.8905263140809034
0.009425519623032619      0.2701823520428861       0.877577292878747
0.00962100183758896       0.28790464942597627      0.8636747844827637
0.009840648410513353      0.3075771795818512       0.8481078052439919
0.009997805983323227      0.3216323026490317       0.8370160380478451
0.010255777197994087      0.34442106902097985      0.8188726202384267
0.010367859764638165      0.35432128650309924      0.8110028937686916
0.0105731967738798        0.37225089731890926      0.7966884299720178
0.010620719496474251      0.37640662011530807      0.7933595605053638
0.010655473186047981      0.37941292670347926      0.7909461608238644
0.01092040772936298       0.4024037019438474       0.7724771534645507
0.011174325457656065      0.4241987920709314       0.7549297599253247
0.011220095962251597      0.4281401399245036       0.7517544211173401
0.011244332821394032      0.43021143594332845      0.750082292457995
0.01142416092343601       0.44555492020698834      0.737664213112192
0.01151908070835106       0.4536185901387988       0.7311361622932104
0.011628225884620091      0.4628757328111691       0.7236227690999228
0.011793828595308198      0.47685994700452455      0.712269437089337
0.01185086721612838       0.48166097831647353      0.7083686541678994
0.012039610620336871      0.4975319239680037       0.6954219296475839
0.012161931815496851      0.5077594154258901       0.6870949764225416
0.012272538390690757      0.5170131157434229       0.679509065311533
0.01247299641486499       0.5336887281626316       0.6658649284388883
0.012505466161044643      0.5363914769322005       0.6636383173356117
0.01272099830736706       0.5542621550071178       0.6489470534188667
0.012790819366720219      0.5600400388147359       0.6441727963603832
0.012942065121290036      0.5725167699323692       0.6338850685355533
0.013129443497247317      0.5879533810164004       0.6211062625347074
0.013168186594855302      0.5911488403963063       0.6184524426482821
0.013217782748212725      0.5952243038085364       0.6150531192464042
0.013422422578088233      0.6120222724290755       0.601067556640393
0.013599854636825226      0.6265613467733895       0.5889075872717311
0.01365015934461189       0.6306852385083459       0.5854470360952899
0.01369183631883164       0.6340992141698754       0.5825605572379315
0.013866320784357233      0.6483690950756614       0.5705400837137441
0.014038150732428756      0.6624141319734052       0.5586545530799291
0.014079889376987231      0.6658271105420104       0.555750078679654
0.014137202917697822      0.6705141276926966       0.5517422212472591
0.014250350011384083      0.6797512887794892       0.5438661039949514
0.014297208633544223      0.6835781876372584       0.5406000158020553
0.014492900552530052      0.6995725795290633       0.5267912588201911
0.014703656919075936      0.7168061619378495       0.5118782695758407
0.014762781018495374      0.7216408835642113       0.5076333088336248
0.014951425383825767      0.7370554818986073       0.4941532607988738
0.015045008053511388      0.7447420060167649       0.4872949240326366
0.015172182192391248      0.7551460996202557       0.4781332403288545
0.01542906715751513       0.776278969586506        0.4591493639777387
0.015430654802937371      0.776409155269592        0.4590323556324933
0.015431971710757164      0.77651791208175         0.4589325762316368
0.015689127413483606      0.7976903132835145       0.43968868502365244
0.015904840179026825      0.8155769503752333       0.42309988378709745
0.015946173708959344      0.8189964541530107       0.419957378356007
0.015996030536184924      0.8231464582861969       0.41607123260286233
0.016159303295665062      0.8367044310692702       0.40334330353728887
0.0163176425400694        0.8499443161640263       0.3907161920762437
0.016384907883106425      0.855552926075299        0.3854059469373897
0.016454269071587424      0.861376407776959        0.37980593713600375
0.0166105124705479        0.8744671709464447       0.3671586079641898
0.016760522247991738      0.8871199912917838       0.3548018605298182
0.016811791240557872      0.8914435898631254       0.3505367383825425
0.016988142671028217      0.9064029539001277       0.335698618910203
0.017017390024535395      0.908882642545469        0.3332127592791903
0.017144475285279848      0.9197372939257203       0.32225374143432167
0.01725355126150141       0.9290338062755199       0.3128951360033274
0.01727541510207231       0.9309101190370265       0.31099472493252167
0.017451206369632932      0.945981922452973        0.2955598200527436
0.01752844333014425       0.9526559530316165       0.2886823852436886
0.017648861477764455      0.963051489760256        0.2778537241998802
0.017781471558216078      0.9745887695981266       0.265764147417046
0.017870103169368323      0.9823177338585478       0.25756306676152485
0.01799191518317933       0.9929619458374872       0.24627383184765286
0.018169919497278197      1.0086348458852656       0.22938333895255997
0.018197487837304682      1.0110653501743843       0.22676707680583327
0.018257622343966773      1.016407006012871        0.22092732099224172
0.018403060491430145      1.0292749702776969       0.2069074232562574
0.018453864180815183      1.033782799727491        0.20192848664248764
0.018580989024621464      1.0452031443973873       0.18921323303575513
0.01868231111519314       1.0542487822597968       0.1791958450041656
0.018746670272106858      1.0600676248045962       0.17267432922523795
0.01903651202092216       1.0862799966975354       0.1429657644382799
0.0192548787261555        1.1063485736158445       0.11985419519615728
0.019390712926651066      1.118835526549581        0.10531890869801418
0.01970311707417105       1.14801224943534         0.07084616089821988
0.01974528186409974       1.151928903008766        0.06624125735659667
0.01975750917864083       1.153080231347611        0.0648720975912308
0.020104993598504706      1.1859705385416486       0.02522943609699616
0.020128097967161196      1.188169056482697        0.02359519974526186
0.02046920819689968       1.220972921652676        0.017739739180169793
0.02049868675568134       1.2238226511507921       0.021253845914325286
0.020833422795294765      1.256520756400478        0.06217777076993732
0.020860064266599254      1.2591170376941232       0.06542240131935419
0.02107035354539466       1.2800182656406367       0.09205750352890538
0.021253561164940593      1.298177935888534        0.11517286310308122
0.02127796623371314       1.3006468521987031       0.11837573279179775
0.021644968758482097      1.3375493155029594       0.16611210909997007
0.021721513193849074      1.3454023416028047       0.17645621445088897
0.022036376352023268      1.377512478085497        0.21863895270237732
0.02219827763118798       1.394353330672379        0.24115343881406454
0.022464710552215106      1.4217906580063522       0.2776781182774608
0.022748268952033968      1.4516413475425538       0.31809834228687917
0.02286508033502832       1.4637473502210987       0.33439465299657967
0.02317765397017768       1.4968578660957303       0.37970791598688675
0.023265450117841868      1.5061400753972227       0.3924110000756868
0.02331631949274171       1.5116201084545309       0.4000247310763667
0.023777782604241238      1.5605650785495033       0.4677207565109219
0.024169034594481276      1.6025051601931914       0.5265023376153068
0.024269797020135764      1.613167847926484        0.5413834608050723
0.024381150062629642      1.6250343948160073       0.5581261960661297
0.024696156885751774      1.6587717705161276       0.6058857908082955
0.025107536682291376      1.7025854666929727       0.6683132490295174
0.0251698434232156        1.7093110620725176       0.6779433916865543
0.025525325013907585      1.7470528864147012       0.7321786619433485
0.025582765579372002      1.7532215941669953       0.7410708600954267
0.025943113345523905      1.7912817215577566       0.7961374653756171
0.025995687735528072      1.796898898587421        0.8042893177154832
0.026044776490108723      1.802106559902264        0.8118928276728232
0.026388535827387205      1.8381895274674178       0.8644425757810795
0.026434865825917253      1.8430587450742775       0.8715902104192065
0.026781383919246116      1.879088909097041        0.9243480509783
0.026824955161725894      1.8836251345948585       0.931043211910763
0.027377138692480374      1.94034605556199         1.014713999741619
0.02747685359804153       1.9505995301810786       1.029927855970854
0.027771121179136493      1.9803744301428963       1.0741686808362028
0.027941145784478705      1.9976044595941658       1.0998641692203908
0.028165103665792612      2.019931632256707        1.1332107543394756
0.02840543797091588       2.043928770151711        1.1691846119032747
0.02867763860391248       2.0706345585873533       1.2093477313250427
0.028873331485319564      2.089891619290249        1.2383497981859517
0.029220452205497738      2.123542132818952        1.2892559664171765
0.029254345947371974      2.126815275003875        1.294207498897506
0.029273453893465473      2.128632593713336        1.2969693720819742
0.029635360409424605      2.163216877790951        1.3495234922841948
0.030027004494842302      2.200067588561026        1.4058167933153463
0.030189667913890328      2.2152691416091397       1.4290499701603376
0.0306717774510199        2.2595386830952795       1.4970615708399053
0.03074648094476795       2.26635138166951         1.507536826873037
0.030991407965131224      2.2882873249377487       1.5414659926671535
0.03132002489236496       2.3177620515808246       1.5870406567073405
0.03143533790022979       2.3279021504228083       1.6027856325705965
0.031726680550513864      2.3534034460269395       1.6424259730654698
0.03198737603407675       2.3758018009438504       1.6773869110479342
0.03218344682387375       2.392657053935978        1.7036855871046201
0.03263027672594909       2.4301024525152366       1.7624077316084494
0.032729714299196244      2.4384453704658164       1.7754908335917257
0.03275496543828249       2.440517926105628        1.7787582367519106
0.0331837200425954        2.475540172511045        1.8339394257311574
0.033209813968323676      2.4776308187966753       1.8372499322397398
0.033637725785994665      2.511746512269973        1.8912411442415604
0.03366466249836508       2.51385194940161         1.894590493960604
0.034178152381016846      2.5536340205809447       1.9578022946922058
0.03422075758710341       2.55688790428622         1.9629974566117945
0.034462885876952454      2.5751692624748355       1.99214023920829
0.03457866385012687       2.583836054922127        2.006007848483188
0.03474761937288817       2.5963365451528126       2.0259786062652467
0.0349365701131501        2.61019440011538         2.048202608806398
0.035256165824756325      2.6331709617488843       2.0850859490338136
0.035298328050449634      2.636218991720841        2.089966617182289
0.03542559467604345       2.645159667464336        2.10433518028191
0.03560462272880993       2.6577352533341863       2.124559764824827
0.03566014497044512       2.661606361642226        2.1308121489731295
0.03588081555922451       2.6767470277389545       2.1551954870370547
0.03601828234996485       2.686102932262033        2.1703433480970276
0.036256747981755266      2.7019515216556593       2.19596937188567
0.03640123794793926       2.7115775850638144       2.21149971109033
0.036596760097607484      2.724144410961447        2.231821623217533
0.03683151977080257       2.73926222654842         2.256344744769959
0.037005006085774506      2.7500269070847647       2.273851821597219
0.03726180159366588       2.765965203874673        2.299679247243281
0.03755826357139069       2.7837068185252334       2.3284864207547167
0.03758910288343387       2.7855572082359386       2.3315019290992836
0.037607915613455334      2.786647002268586        2.3332811387532764
0.037916404173201856      2.8045189641211206       2.3623099020500797
0.03813487864637555       2.816723273983667        2.3821677959910263
0.03825903462080993       2.823640126030204        2.3933493273495454
0.038549893623787135      2.839258828617242        2.418729070250754
0.03860552532411765       2.842222878562594        2.423502057876847
0.038934683025218075      2.859078634050823        2.4507883197764095
0.038952016027425374      2.859958978805403        2.452199841914548
0.0391088287761483        2.8675987345068563       2.464515377557614
0.03929093898381697       2.8764958375879055       2.478872957196294
0.039307328177905165      2.8772813503771886       2.4801500957418843
0.03933305899372408       2.878465884314923        2.482058985511705
0.0396008727951318        2.8908907678575133       2.5020077778960115
0.03984062411001843       2.901376162981469        2.5187363433816436
0.039898894616962055      2.9039396266951365       2.522806138318744
0.039981769531584166      2.9073651119402255       2.52820380202157
0.04019691643879253       2.9163203833067097       2.5424304039400174
0.04029762793137848       2.9202512823417317       2.5486234309889926
0.040420649118312224      2.9250889418018744       2.5561995443712267
0.04063554489109422       2.9330177315892443       2.5684986286743268
0.04064601751347918       2.9334060256879644       2.5690967537771385
0.04066394423392494       2.9340224473376137       2.5700352277204264
0.04091116321857169       2.9426650477496024       2.5833250502166454
0.041038992081677605      2.9467976245721528       2.5895938025832907
0.041157166809815626      2.950618474242034        2.595335083059369
0.041388304740342496      2.957454043482794        2.6054149851354915
0.04140284033119057       2.9578926419920877       2.606069703015009
0.04141530244691627       2.958236010581248        2.606569661618128
0.041643381778869726      2.964496309070415        2.615613154743196
0.04178345509472714       2.9679836254115752       2.620517901051212
0.04189725480708617       2.970777962796645        2.6243827816684147
0.04206797811195462       2.974433722257741        2.6291754203121185
0.042161075740423604      2.9765205087012028       2.631994858324334
0.042223132196917534      2.9777165550841844       2.6335087359212475
0.04242489667376104       2.9815531478231554       2.6382795160109733
0.042631508430102105      2.984836061606208        2.641985983700805
0.04279233583191111       2.9871849071455676       2.6444012224384323
0.0430133396094019        2.989734571487724        2.6464893131675
0.04314214439435471       2.99110634375403         2.647448080980295
0.04337751935899847       2.9928057775605534       2.6477224536759634
0.04346534444024308       2.993396153663288        2.647725216775569
0.043596335559398014      2.993751897094089        2.6467206883460643
0.04377664063367703       2.9944560042255572       2.6457939199027196
0.04401870023493415       2.994277606026335        2.64235254605111
0.04408793682711132       2.994244761650754        2.6414100884530844
0.04413950969937297       2.993980890715259        2.6402399422120553
0.04445073497401297       2.992662958330138        2.633762249407444
0.04473519300571527       2.9899830161724084       2.6249730722243414
0.04481396402222082       2.989270477227146        2.622604898125631
0.04501520628292388       2.9864200747621417       2.614543880885967
0.04517566528605321       2.984274810553781        2.608394820267809
0.04523794547202775       2.983133595444039        2.60541442211462
0.04553546852606272       2.977749279078121        2.5913087978280602
0.04574064345500661       2.972979011315946        2.579540489686093
0.04591825431555385       2.9688634770388584       2.569370147252473
0.04627825170836475       2.958590816772645        2.545078111947539
0.04631251709613071       2.9576104141396664       2.542754295984743
0.046406761907606175      2.9544083734107764       2.5353999401375265
0.04670677987670724       2.944478908815688        2.5125659545044785
0.04682350028411664       2.9399762223045527       2.502469476451904
0.0470834921322304        2.929970065400267        2.4799722065362726
0.047398764360503165      2.9160779702893915       2.4493679205220023
0.04745860105691957       2.913456898821603        2.443575450810614
0.047566764590853405      2.9081088727305016       2.4319366570034378
0.04782548267919273       2.895612113438144        2.4047688948152066
0.04798996478937534       2.886731278151828        2.385723471954522
0.048182496752062765      2.8764362791676854       2.3635771564677923
0.04841326227227394       2.862782379435049        2.3345216188937417
0.048544005064974916      2.8552163383559015       2.318456095121888
0.04863785493399564       2.849218118791957        2.3058513500934645
0.048913728249420085      2.831821651634133        2.2691644451911444
0.04922392986133994       2.810431761172078        2.224430169462398
0.049285173408469496      2.8062841370992384       2.215784384880876
0.049351553223717315      2.801407298387814        2.205693361430346
0.04964396352320266       2.780195936638807        2.1616804076817546
0.04993281640004632       2.7576576124207066       2.1151879694160107
0.04999999999999982       2.752481830952808        2.1045507081029546
